# CIF file 
data_findsym-output
_audit_creation_method FINDSYM

_chemical_name_mineral 'Paratellurite'
_chemical_formula_sum 'O2 Te'

loop_
_publ_author_name
 'P. A. Thomas'
_journal_name_full_name
;
 Journal of Physics C: Solid State Physics
;
_journal_volume 21
_journal_year 1988
_journal_page_first 4611
_journal_page_last 4627
_publ_Section_title
;
 The crystal structure and absolute optical chirality of paratellurite, $\alpha$-TeO$_{2}$
;

# Found in {\em Ab initio} study of the vibrational properties of crystalline TeO$_{2}$: The $\alpha$, $\beta$, and $\gamma$ phases, 2006

_aflow_title 'Paratellurite ($\alpha$-TeO$_{2}$) Structure'
_aflow_proto 'A2B_tP12_92_b_a'
_aflow_params 'a,c/a,x_{1},x_{2},y_{2},z_{2}'
_aflow_params_values '4.8082,1.60392662535,0.0268,0.1386,0.2576,0.1862'
_aflow_Strukturbericht 'None'
_aflow_Pearson 'tP12'

_symmetry_space_group_name_H-M "P 41 21 2"
_symmetry_Int_Tables_number 92
 
_cell_length_a    4.80820
_cell_length_b    4.80820
_cell_length_c    7.71200
_cell_angle_alpha 90.00000
_cell_angle_beta  90.00000
_cell_angle_gamma 90.00000
 
loop_
_space_group_symop_id
_space_group_symop_operation_xyz
1 x,y,z
2 x+1/2,-y+1/2,-z+3/4
3 -x+1/2,y+1/2,-z+1/4
4 -x,-y,z+1/2
5 -y,-x,-z+1/2
6 -y+1/2,x+1/2,z+1/4
7 y+1/2,-x+1/2,z+3/4
8 y,x,-z
 
loop_
_atom_site_label
_atom_site_type_symbol
_atom_site_symmetry_multiplicity
_atom_site_Wyckoff_label
_atom_site_fract_x
_atom_site_fract_y
_atom_site_fract_z
_atom_site_occupancy
Te1 Te 4 a 0.02680 0.02680 0.00000 1.00000
O1 O 8 b 0.13860 0.25760 0.18620 1.00000