# CIF file 
data_findsym-output
_audit_creation_method FINDSYM

_chemical_name_mineral 'Tellurite'
_chemical_formula_sum 'O2 Te'

loop_
_publ_author_name
 'H. Beyer'
_journal_name_full_name
;
 Zeitschrift f{\"u}r Kristallographie - Crystalline Materials
;
_journal_volume 124
_journal_year 1967
_journal_page_first 228
_journal_page_last 237
_publ_Section_title
;
 Verfeinerung der Kristallstruktur von Tellurit, dem rhombischen TeO$_{2}$
;

# Found in {\em Ab initio} study of the vibrational properties of crystalline TeO$_{2}$: The $\alpha$, $\beta$, and $\gamma$ phases, 2006

_aflow_title 'Tellurite ($\beta$-TeO$_{2}$, $C52$) Structure'
_aflow_proto 'A2B_oP24_61_2c_c'
_aflow_params 'a,b/a,c/a,x_{1},y_{1},z_{1},x_{2},y_{2},z_{2},x_{3},y_{3},z_{3}'
_aflow_params_values '15.035,0.363418689724,0.372929830396,0.028,0.634,0.171,0.168,0.221,0.081,0.1181,0.0252,0.3378'
_aflow_Strukturbericht '$C52$'
_aflow_Pearson 'oP24'

_symmetry_space_group_name_H-M "P 21/b 21/c 21/a"
_symmetry_Int_Tables_number 61
 
_cell_length_a    15.03500
_cell_length_b    5.46400
_cell_length_c    5.60700
_cell_angle_alpha 90.00000
_cell_angle_beta  90.00000
_cell_angle_gamma 90.00000
 
loop_
_space_group_symop_id
_space_group_symop_operation_xyz
1 x,y,z
2 x+1/2,-y+1/2,-z
3 -x,y+1/2,-z+1/2
4 -x+1/2,-y,z+1/2
5 -x,-y,-z
6 -x+1/2,y+1/2,z
7 x,-y+1/2,z+1/2
8 x+1/2,y,-z+1/2
 
loop_
_atom_site_label
_atom_site_type_symbol
_atom_site_symmetry_multiplicity
_atom_site_Wyckoff_label
_atom_site_fract_x
_atom_site_fract_y
_atom_site_fract_z
_atom_site_occupancy
O1 O 8 c 0.02800 0.63400 0.17100 1.00000
O2 O 8 c 0.16800 0.22100 0.08100 1.00000
Te1 Te 8 c 0.11810 0.02520 0.33780 1.00000