# CIF file# This file was generated by FINDSYM
# Harold T. Stokes, Branton J. Campbell, Dorian M. Hatch
# Brigham Young University, Provo, Utah, USA
 
data_findsym-output
_audit_creation_method FINDSYM

_chemical_name_mineral 'H_{8}K_{2}MnO_{12}S_{2}'
_chemical_formula_sum 'H8 K2 Mn O12 S2'

loop_
_publ_author_name
 'B. Hertweck'
 'G. Giester'
 'E. Libowitzky'
_journal_name_full_name
;
 American Mineralogist
;
_journal_volume 86
_journal_year 2001
_journal_page_first 1282
_journal_page_last 1292
_publ_Section_title
;
 The crystal structures of the low-temperature phases of leonite-type compounds, K$_{2}$$Me$(SO$_{4}$)$_{2}$$\cdot$4H$_{2}$O ($Me^{2+}$ = Mg, Mn, Fe)
;

_aflow_title 'Manganese-leonite 185~K [K$_{2}$Mn(SO$_{4}$)$_{2}$$\cdot$4H$_{2}$O] Structure'
_aflow_proto 'A8B2CD12E2_mC200_15_8f_2f_ae_2e11f_2f'
_aflow_params 'a,b/a,c/a,\beta,y_{2},y_{3},y_{4},x_{5},y_{5},z_{5},x_{6},y_{6},z_{6},x_{7},y_{7},z_{7},x_{8},y_{8},z_{8},x_{9},y_{9},z_{9},x_{10},y_{10},z_{10},x_{11},y_{11},z_{11},x_{12},y_{12},z_{12},x_{13},y_{13},z_{13},x_{14},y_{14},z_{14},x_{15},y_{15},z_{15},x_{16},y_{16},z_{16},x_{17},y_{17},z_{17},x_{18},y_{18},z_{18},x_{19},y_{19},z_{19},x_{20},y_{20},z_{20},x_{21},y_{21},z_{21},x_{22},y_{22},z_{22},x_{23},y_{23},z_{23},x_{24},y_{24},z_{24},x_{25},y_{25},z_{25},x_{26},y_{26},z_{26},x_{27},y_{27},z_{27}'
_aflow_params_values '22.2836,0.428521423827,0.890296002441,147.45218,0.49914,0.7271,0.2724,0.074,0.223,0.016,0.076,0.148,-0.037,0.571,0.271,0.013,0.582,0.349,-0.03,0.043,0.224,0.809,0.543,0.278,0.808,0.556,0.013,-0.06,-0.046,0.494,0.84,0.83022,0.23315,0.70102,0.17013,0.24062,0.79174,0.8421,0.1253,0.53659,0.6591,0.3718,-0.03274,0.6505,0.0926,0.10143,0.1769,0.3486,0.15359,0.6726,0.0008,0.89258,0.1841,0.0066,0.88583,0.1676,0.0057,0.70032,0.1931,0.4801,0.75594,0.037,0.1653,-0.03785,0.5407,0.333,-0.03215,0.5098,0.0021,0.86973,0.20701,0.0027,-0.02057,0.21207,0.4929,0.2022'
_aflow_Strukturbericht 'None'
_aflow_Pearson 'mC200'

_symmetry_space_group_name_H-M "C 1 2/c 1"
_symmetry_Int_Tables_number 15
 
_cell_length_a    22.28360
_cell_length_b    9.54900
_cell_length_c    19.83900
_cell_angle_alpha 90.00000
_cell_angle_beta  147.45218
_cell_angle_gamma 90.00000
 
loop_
_space_group_symop_id
_space_group_symop_operation_xyz
1 x,y,z
2 -x,y,-z+1/2
3 -x,-y,-z
4 x,-y,z+1/2
5 x+1/2,y+1/2,z
6 -x+1/2,y+1/2,-z+1/2
7 -x+1/2,-y+1/2,-z
8 x+1/2,-y+1/2,z+1/2
 
loop_
_atom_site_label
_atom_site_type_symbol
_atom_site_symmetry_multiplicity
_atom_site_Wyckoff_label
_atom_site_fract_x
_atom_site_fract_y
_atom_site_fract_z
_atom_site_occupancy
Mn1 Mn 4 a 0.00000 0.00000 0.00000 1.00000
Mn2 Mn 4 e 0.00000 0.49914 0.25000 1.00000
O1 O 4 e 0.00000 0.72710 0.25000 1.00000
O2 O 4 e 0.00000 0.27240 0.25000 1.00000
H1 H 8 f 0.07400 0.22300 0.01600 1.00000
H2 H 8 f 0.07600 0.14800 -0.03700 1.00000
H3 H 8 f 0.57100 0.27100 0.01300 1.00000
H4 H 8 f 0.58200 0.34900 -0.03000 1.00000
H5 H 8 f 0.04300 0.22400 0.80900 1.00000
H6 H 8 f 0.54300 0.27800 0.80800 1.00000
H7 H 8 f 0.55600 0.01300 -0.06000 1.00000
H8 H 8 f -0.04600 0.49400 0.84000 1.00000
K1 K 8 f 0.83022 0.23315 0.70102 1.00000
K2 K 8 f 0.17013 0.24062 0.79174 1.00000
O3 O 8 f 0.84210 0.12530 0.53659 1.00000
O4 O 8 f 0.65910 0.37180 -0.03274 1.00000
O5 O 8 f 0.65050 0.09260 0.10143 1.00000
O6 O 8 f 0.17690 0.34860 0.15359 1.00000
O7 O 8 f 0.67260 0.00080 0.89258 1.00000
O8 O 8 f 0.18410 0.00660 0.88583 1.00000
O9 O 8 f 0.16760 0.00570 0.70032 1.00000
O10 O 8 f 0.19310 0.48010 0.75594 1.00000
O11 O 8 f 0.03700 0.16530 -0.03785 1.00000
O12 O 8 f 0.54070 0.33300 -0.03215 1.00000
O13 O 8 f 0.50980 0.00210 0.86973 1.00000
S1 S 8 f 0.20701 0.00270 -0.02057 1.00000
S2 S 8 f 0.21207 0.49290 0.20220 1.00000