# CIF file 
data_findsym-output
_audit_creation_method FINDSYM

_chemical_name_mineral 'beta-B2H6'
_chemical_formula_sum 'B H3'

loop_
_publ_author_name
 'H. W. Smith'
 'W. N. Lipscomb'
_journal_name_full_name
;
 Journal of Chemical Physics
;
_journal_volume 43
_journal_year 1965
_journal_page_first 1060
_journal_page_last 1064
_publ_Section_title
;
 Single-Crystal X-Ray Diffraction Study of $\beta$-Diborane
;

_aflow_title '$\beta$-B$_{2}$H$_{6}$ Structure'
_aflow_proto 'AB3_mP16_14_e_3e'
_aflow_params 'a,b/a,c/a,\beta,x_{1},y_{1},z_{1},x_{2},y_{2},z_{2},x_{3},y_{3},z_{3},x_{4},y_{4},z_{4}'
_aflow_params_values '4.4,1.47727272727,1.41869318182,117.78562,0.144,0.042,0.146,0.36,0.14,0.166,0.098,-0.005,0.294,0.877,0.112,-0.019'
_aflow_Strukturbericht 'None'
_aflow_Pearson 'mP16'

_symmetry_space_group_name_H-M "P 1 21/c 1"
_symmetry_Int_Tables_number 14
 
_cell_length_a    4.40000
_cell_length_b    6.50000
_cell_length_c    6.24225
_cell_angle_alpha 90.00000
_cell_angle_beta  117.78562
_cell_angle_gamma 90.00000
 
loop_
_space_group_symop_id
_space_group_symop_operation_xyz
1 x,y,z
2 -x,y+1/2,-z+1/2
3 -x,-y,-z
4 x,-y+1/2,z+1/2
 
loop_
_atom_site_label
_atom_site_type_symbol
_atom_site_symmetry_multiplicity
_atom_site_Wyckoff_label
_atom_site_fract_x
_atom_site_fract_y
_atom_site_fract_z
_atom_site_occupancy
B1 B 4 e 0.14400 0.04200 0.14600 1.00000
H1 H 4 e 0.36000 0.14000 0.16600 1.00000
H2 H 4 e 0.09800 -0.00500 0.29400 1.00000
H3 H 4 e 0.87700 0.11200 -0.01900 1.00000