# CIF file 
data_findsym-output
_audit_creation_method FINDSYM

_chemical_name_mineral 'KNO3'
_chemical_formula_sum 'K N O3'

loop_
_publ_author_name
 'J. K. Nimmo'
 'B. W. Lucas'
_journal_name_full_name
;
 Journal of Physics C: Solid State Physics
;
_journal_volume 6
_journal_year 1973
_journal_page_first 201
_journal_page_last 211
_publ_Section_title
;
 A neutron diffraction determination of the crystal structure of $\alpha$-phase potassium nitrate at 25$^{\circ}$C and 100$^{\circ}$C
;

# Found in The American Mineralogist Crystal Structure Database, 2003

_aflow_title '$\alpha$-Potassium Nitrate (KNO$_{3}$) I Structure'
_aflow_proto 'ABC3_oP20_62_c_c_cd'
_aflow_params 'a,b/a,c/a,x_{1},z_{1},x_{2},z_{2},x_{3},z_{3},x_{4},y_{4},z_{4}'
_aflow_params_values '6.4213,0.842804416551,1.425988507,0.7568,0.4166,-0.0848,0.7548,-0.0893,0.8902,-0.0849,0.4492,0.6866'
_aflow_Strukturbericht 'None'
_aflow_Pearson 'oP20'

_symmetry_space_group_name_H-M "P 21/n 21/m 21/a"
_symmetry_Int_Tables_number 62
 
_cell_length_a    6.42130
_cell_length_b    5.41190
_cell_length_c    9.15670
_cell_angle_alpha 90.00000
_cell_angle_beta  90.00000
_cell_angle_gamma 90.00000
 
loop_
_space_group_symop_id
_space_group_symop_operation_xyz
1 x,y,z
2 x+1/2,-y+1/2,-z+1/2
3 -x,y+1/2,-z
4 -x+1/2,-y,z+1/2
5 -x,-y,-z
6 -x+1/2,y+1/2,z+1/2
7 x,-y+1/2,z
8 x+1/2,y,-z+1/2
 
loop_
_atom_site_label
_atom_site_type_symbol
_atom_site_symmetry_multiplicity
_atom_site_Wyckoff_label
_atom_site_fract_x
_atom_site_fract_y
_atom_site_fract_z
_atom_site_occupancy
K1 K 4 c 0.75680 0.25000 0.41660 1.00000
N1 N 4 c -0.08480 0.25000 0.75480 1.00000
O1 O 4 c -0.08930 0.25000 0.89020 1.00000
O2 O 8 d -0.08490 0.44920 0.68660 1.00000
