# CIF file 
data_findsym-output
_audit_creation_method FINDSYM

_chemical_name_mineral 'BrKO3'
_chemical_formula_sum 'Br K O3'

loop_
_publ_author_name
 'D. H. Templeton'
 'L. K. Templeton'
_journal_year 1985
_publ_Section_title
;
 Tensor X-ray optical properties of the bromate ion
;

# Found in Crystal behavior of potassium bromate under compression, 2015

_aflow_title 'KBrO$_{3}$ ($G0_{7}$) Structure'
_aflow_proto 'ABC3_hR5_160_a_a_b'
_aflow_params 'a,c/a,x_{1},x_{2},x_{3},z_{3}'
_aflow_params_values '6.011,1.35618033605,0.4827,0.0,0.54476,1.11108'
_aflow_Strukturbericht '$G0_{7}$'
_aflow_Pearson 'hR5'

_symmetry_space_group_name_H-M "R 3 m (hexagonal axes)"
_symmetry_Int_Tables_number 160
 
_cell_length_a    6.01100
_cell_length_b    6.01100
_cell_length_c    8.15200
_cell_angle_alpha 90.00000
_cell_angle_beta  90.00000
_cell_angle_gamma 120.00000
 
loop_
_space_group_symop_id
_space_group_symop_operation_xyz
1 x,y,z
2 -y,x-y,z
3 -x+y,-x,z
4 -y,-x,z
5 x,x-y,z
6 -x+y,y,z
7 x+1/3,y+2/3,z+2/3
8 -y+1/3,x-y+2/3,z+2/3
9 -x+y+1/3,-x+2/3,z+2/3
10 -y+1/3,-x+2/3,z+2/3
11 x+1/3,x-y+2/3,z+2/3
12 -x+y+1/3,y+2/3,z+2/3
13 x+2/3,y+1/3,z+1/3
14 -y+2/3,x-y+1/3,z+1/3
15 -x+y+2/3,-x+1/3,z+1/3
16 -y+2/3,-x+1/3,z+1/3
17 x+2/3,x-y+1/3,z+1/3
18 -x+y+2/3,y+1/3,z+1/3
 
loop_
_atom_site_label
_atom_site_type_symbol
_atom_site_symmetry_multiplicity
_atom_site_Wyckoff_label
_atom_site_fract_x
_atom_site_fract_y
_atom_site_fract_z
_atom_site_occupancy
Br1 Br 3 a 0.00000 0.00000 0.48270 1.00000
K1 K 3 a 0.00000 0.00000 0.00000 1.00000
O1 O 9 b 0.14456 0.85544 0.40020 1.00000